 Gaussian 03, Revision D.01,

 ----------------------------------------------------------------------
 # B3LYP/6-311++G(d,p) opt=(ts,noeigen,notrust,calcfc) scfcon=6 scfcyc=
 300 optcyc=100 scf=direct
 ----------------------------------------------------------------------

 ---------------------------------------
 This is a computer generated structure.
 ---------------------------------------
 Symbolic Z-matrix:
 Charge =  0 Multiplicity = 1

 SCF Done:  E(RB+HF-LYP) =  -301.890499421     A.U. after   12 cycles
 SCF Done:  E(RB+HF-LYP) =  -301.890499195     A.U. after    5 cycles
 Optimization completed.
    -- Stationary point found.
 Normal termination of Gaussian 03 at Tue Oct 20 14:36:39 2009.
 Gaussian 03:  AM64L-G03RevD.01 13-Oct-2005

 ----------------------------------------------------------------------
 # B3LYP/6-311++G(d,p) freq=noraman scfcon=6 scfcyc=300 optcyc=100 geom
 =check guess=read
 ----------------------------------------------------------------------

 Title
 -----
 Redundant internal coordinates taken from checkpoint file:
 /fslhome/calls/compute/scripts/2HOO/2HOOSinglet_Energy/mychk5.chk
 Charge =  0 Multiplicity = 1

                         Standard orientation:
 ---------------------------------------------------------------------
 Center     Atomic     Atomic              Coordinates (Angstroms)
 Number     Number      Type              X           Y           Z
 ---------------------------------------------------------------------
    1          8             0       -1.116108   -0.671959   -0.101999
    2          8             0       -1.134761    0.598292    0.136777
    3          1             0       -0.317303    0.990771   -0.384963
    4          8             0        1.096911    0.704420   -0.048136
    5          8             0        1.046654   -0.641141   -0.048883
    6          1             0        1.175736   -0.907664    0.882884
 ---------------------------------------------------------------------

 SCF Done:  E(RB+HF-LYP) =  -301.890499202     A.U. after    3 cycles

 The electronic state is 1-A.
 Alpha  occ. eigenvalues --  -19.28011 -19.26825 -19.23596 -19.21546  -1.24318
 Alpha  occ. eigenvalues --   -1.20240  -0.90687  -0.84712  -0.60617  -0.58729
 Alpha  occ. eigenvalues --   -0.51643  -0.50175  -0.49448  -0.43525  -0.34603
 Alpha  occ. eigenvalues --   -0.31299  -0.27790
 Alpha virt. eigenvalues --   -0.18056  -0.02632   0.00032   0.04963   0.07946
 Alpha virt. eigenvalues --    0.10636   0.11069   0.14082   0.14911   0.16544
 Alpha virt. eigenvalues --    0.16771   0.17800   0.18495   0.18988   0.23229

 Mulliken atomic charges:
              1
     1  O   -0.106482
     2  O   -0.104585
     3  H    0.287959
     4  O   -0.344547
     5  O    0.002098
     6  H    0.265556
 Sum of Mulliken charges=   0.00000

 Dipole moment (field-independent basis, Debye):
    X=     0.8501    Y=    -0.3254    Z=     1.0030  Tot=     1.3545
 Quadrupole moment (field-independent basis, Debye-Ang):
   XX=   -24.0977   YY=   -21.8552   ZZ=   -21.6428
   XY=    -3.2108   XZ=     2.8244   YZ=    -2.8217

  Exact polarizability:  48.390   2.531  28.010   1.002  -1.270  17.223
 Approx polarizability: 141.196  21.336  57.698  -0.308  -0.316  21.468

 ******    1 imaginary frequencies (negative Signs) ******

                     1                      2                      3
                     A                      A                      A
 Frequencies --  -668.6002               222.9988               290.8475
 Red. masses --     1.0905                 6.8198                 7.9458
 Frc consts  --     0.2872                 0.1998                 0.3960
 IR Inten    --    55.9447                12.1191                19.3626

                     4                      5                      6
                     A                      A                      A
 Frequencies --   442.2700               513.2211               608.8398
 Red. masses --     9.7104                 2.9470                 1.5813
 Frc consts  --     1.1191                 0.4573                 0.3454
 IR Inten    --     7.0217                20.6244                37.6863

                     7                      8                      9
                     A                      A                      A
 Frequencies --  1048.8558              1236.7870              1393.3463
 Red. masses --    10.1141                12.9934                 1.1326
 Frc consts  --     6.5555                11.7102                 1.2955
 IR Inten    --   281.3514                95.1055                57.6834

                    10                     11                     12
                     A                      A                      A
 Frequencies --  1531.9645              2547.7745              3618.2865
 Red. masses --     1.1060                 1.0666                 1.0691
 Frc consts  --     1.5294                 4.0793                 8.2463
 IR Inten    --    41.9231                41.9865                80.3834

 - Thermochemistry -
 -------------------
 Temperature   298.150 Kelvin.  Pressure   1.00000 Atm.
 Atom  1 has atomic number  8 and mass  15.99491

 Molecular mass:    65.99531 amu.
 Principal axes and moments of inertia in atomic units:
                           1         2         3
     EIGENVALUES --   109.61985 286.50774 386.10213
           X            0.99952  -0.02661   0.01576
           Y            0.02727   0.99871  -0.04276
           Z           -0.01460   0.04317   0.99896
 This molecule is an asymmetric top.
 Rotational symmetry number  1.
 Rotational temperatures (Kelvin)      0.79013     0.30231     0.22433
 Rotational constants (GHZ):          16.46363     6.29910     4.67426
    1 imaginary frequencies ignored.
 Zero-point vibrational energy      80479.9 (Joules/Mol)
                                   19.23516 (Kcal/Mol)
 Warning -- explicit consideration of   5 degrees of freedom as
           vibrations may cause significant error
 Vibrational temperatures:    320.85   418.46   636.33   738.41   875.98
          (Kelvin)           1509.07  1779.46  2004.71  2204.15  3665.67
                             5205.90

 Zero-point correction=                           0.030653 (Hartree/Particle)
 Thermal correction to Energy=                    0.035140
 Thermal correction to Enthalpy=                  0.036084
 Thermal correction to Gibbs Free Energy=         0.003816
 Sum of electronic and zero-point Energies=           -301.859846
 Sum of electronic and thermal Energies=              -301.855359
 Sum of electronic and thermal Enthalpies=            -301.854415
 Sum of electronic and thermal Free Energies=         -301.886683

                     E (Thermal)             CV                S
                      KCal/Mol        Cal/Mol-Kelvin    Cal/Mol-Kelvin
 Total                   22.051             13.756             67.914
 Electronic               0.000              0.000              0.000
 Translational            0.889              2.981             38.479
 Rotational               0.889              2.981             24.009
 Vibrational             20.273              7.794              5.425
 Vibration  1             0.649              1.806              1.935
 Vibration  2             0.687              1.691              1.469
 Vibration  3             0.802              1.378              0.820
 Vibration  4             0.868              1.221              0.626
 Vibration  5             0.968              1.013              0.435

 Optimization completed.
    -- Stationary point found.

 1\1\GINC-M5-11-13\Freq\RB3LYP\6-311++G(d,p)\H2O4\CALLS\20-Oct-2009\0\\
 # B3LYP/6-311++G(d,p) freq=noraman scfcon=6 scfcyc=300 optcyc=100 geom
 =check guess=read\\Title\\0,1\O,-1.1157635089,-0.6717446187,-0.1017825
 406\O,-1.1340673138,0.5985121908,0.1369942002\H,-0.3165009701,0.990766
 1792,-0.3847456699\O,1.0976338712,0.7040260145,-0.0479186616\O,1.04700
 64118,-0.6415214286,-0.048665634\H,1.1760155097,-0.9080793372,0.883101
 3059\\Version=AM64L-G03RevD.01\State=1-A\HF=-301.8904992\RMSD=1.015e-0
 7\RMSF=3.399e-06\ZeroPoint=0.0306532\Thermal=0.0351401\Dipole=0.334415

 Normal termination of Gaussian 03 at Tue Oct 20 14:40:19 2009.
